
FAST Summary File

Predictions were generated on 21-Aug-2025 at 18:02:31 using OpenFAST, compiled as a 64-bit application using single precision at commit v3.5.3
  compiled with
    NWTC Subroutine Library
    ElastoDyn
    BeamDyn (unknown version, unknown date) [not called]
    InflowWind
    AeroDyn14 (unknown version, unknown date) [not called]
    AeroDyn
    ServoDyn
    HydroDyn (unknown version, unknown date) [not called]
    SubDyn (unknown version, unknown date) [not called]
    ExtPtfm_MCKF (unknown version, unknown date) [not called]
    MAP (unknown version, unknown date) [not called]
    FEAMooring (unknown version, unknown date) [not called]
    MoorDyn (unknown version, unknown date) [not called]
    OrcaFlexInterface (unknown version, unknown date) [not called]
    IceFloe (unknown version, unknown date) [not called]
    IceDyn (unknown version, unknown date) [not called]


Modeling a land-based turbine
Description from the FAST input file: 
  Generated     with          - AeroElasticSE FAST driver

Interpolation order for input/output time histories: 2 (quadratic)
Number of correction iterations:  0


   Requested Time Steps  
  -------------------------------------------------
  Component          Time Step (s)    Subcycles (-)
  -----------------  ---------------  -------------
  FAST (glue code)    6.250E-03
  InflowWind          6.250E-03              1
  ElastoDyn           6.250E-03              1
  AeroDyn             6.250E-03              1
  ServoDyn            6.250E-03              1
  FAST output files   6.250E-03              1


   Requested Channels in FAST Output File(s)  
  --------------------------------------------
  Number  Name                  Units                 Generated by
  ------  --------------------  --------------------  ------------
       1  Time                  (s)                   OpenFAST
       2  Wind1VelX             (m/s)                 InflowWind
       3  BldPitch1             (deg)                 ElastoDyn
       4  Azimuth               (deg)                 ElastoDyn
       5  RotSpeed              (rpm)                 ElastoDyn
       6  GenSpeed              (rpm)                 ElastoDyn
       7  YawPzn                (deg)                 ElastoDyn
       8  RotPwr                (kW)                  ElastoDyn
       9  RotTorq               (kN-m)                ElastoDyn
      10  LSSTipMys             (kN-m)                ElastoDyn
      11  LSSTipMzs             (kN-m)                ElastoDyn
      12  LSShftFys             (kN)                  ElastoDyn
      13  LSShftFzs             (kN)                  ElastoDyn
      14  LSSGagMya             (kN-m)                ElastoDyn
      15  LSSGagMza             (kN-m)                ElastoDyn
      16  HSShftTq              (kN-m)                ElastoDyn
      17  RootMyb1              (kN-m)                ElastoDyn
      18  RootMyb2              (kN-m)                ElastoDyn
      19  RootMyb3              (kN-m)                ElastoDyn
      20  RootMxb1              (kN-m)                ElastoDyn
      21  RootMxb2              (kN-m)                ElastoDyn
      22  RootMxb3              (kN-m)                ElastoDyn
      23  TipDxb1               (m)                   ElastoDyn
      24  TipDxb2               (m)                   ElastoDyn
      25  TipDxb3               (m)                   ElastoDyn
      26  TipDxc1               (m)                   ElastoDyn
      27  TipDxc2               (m)                   ElastoDyn
      28  TipDxc3               (m)                   ElastoDyn
      29  TipDyb1               (m)                   ElastoDyn
      30  TipDyb2               (m)                   ElastoDyn
      31  TipDyb3               (m)                   ElastoDyn
      32  TipDyc1               (m)                   ElastoDyn
      33  TipDyc2               (m)                   ElastoDyn
      34  TipDyc3               (m)                   ElastoDyn
      35  TipDzb1               (m)                   ElastoDyn
      36  TipDzb2               (m)                   ElastoDyn
      37  TipDzb3               (m)                   ElastoDyn
      38  TipDzc1               (m)                   ElastoDyn
      39  TipDzc2               (m)                   ElastoDyn
      40  TipDzc3               (m)                   ElastoDyn
      41  TwrBsMyt              (kN-m)                ElastoDyn
      42  TwrBsMxt              (kN-m)                ElastoDyn
      43  LSSTipPxs             (deg)                 ElastoDyn
      44  RtAeroPwr             (W)                   AeroDyn
      45  GenPwr                (kW)                  ServoDyn
      46  GenTq                 (kN-m)                ServoDyn
