
FAST Summary File

Predictions were generated on 19-Aug-2025 at 15:33:15 using OpenFAST, compiled as a 64-bit application using single precision at commit v3.5.3
  compiled with
    NWTC Subroutine Library
    ElastoDyn
    BeamDyn (unknown version, unknown date) [not called]
    InflowWind
    AeroDyn14 (unknown version, unknown date) [not called]
    AeroDyn
    ServoDyn
    HydroDyn (unknown version, unknown date) [not called]
    SubDyn (unknown version, unknown date) [not called]
    ExtPtfm_MCKF (unknown version, unknown date) [not called]
    MAP (unknown version, unknown date) [not called]
    FEAMooring (unknown version, unknown date) [not called]
    MoorDyn (unknown version, unknown date) [not called]
    OrcaFlexInterface (unknown version, unknown date) [not called]
    IceFloe (unknown version, unknown date) [not called]
    IceDyn (unknown version, unknown date) [not called]


Modeling a land-based turbine
Description from the FAST input file: 
  Generated     with          - AeroElasticSE FAST driver

Interpolation order for input/output time histories: 2 (quadratic)
Number of correction iterations:  0


   Requested Time Steps  
  -------------------------------------------------
  Component          Time Step (s)    Subcycles (-)
  -----------------  ---------------  -------------
  FAST (glue code)    2.000E-02
  InflowWind          2.000E-02              1
  ElastoDyn           2.000E-02              1
  AeroDyn             2.000E-02              1
  ServoDyn            2.000E-02              1
  FAST output files   2.000E-02              1


   Requested Channels in FAST Output File(s)  
  --------------------------------------------
  Number  Name                  Units                 Generated by
  ------  --------------------  --------------------  ------------
       1  Time                  (s)                   OpenFAST
       2  Wind1VelX             (m/s)                 InflowWind
       3  BldPitch1             (deg)                 ElastoDyn
       4  Azimuth               (deg)                 ElastoDyn
       5  RotSpeed              (rpm)                 ElastoDyn
       6  GenSpeed              (rpm)                 ElastoDyn
       7  YawPzn                (deg)                 ElastoDyn
       8  RotPwr                (kW)                  ElastoDyn
       9  RotTorq               (kN-m)                ElastoDyn
      10  LSSTipMys             (kN-m)                ElastoDyn
      11  LSSTipMzs             (kN-m)                ElastoDyn
      12  LSShftFys             (kN)                  ElastoDyn
      13  LSShftFzs             (kN)                  ElastoDyn
      14  RootMyb1              (kN-m)                ElastoDyn
      15  RootMyb2              (kN-m)                ElastoDyn
      16  RootMyb3              (kN-m)                ElastoDyn
      17  RootMxb1              (kN-m)                ElastoDyn
      18  RootMxb2              (kN-m)                ElastoDyn
      19  RootMxb3              (kN-m)                ElastoDyn
      20  NcIMUTAxs             (m/s^2)               ElastoDyn
      21  NcIMUTAys             (m/s^2)               ElastoDyn
      22  NcIMUTAzs             (m/s^2)               ElastoDyn
      23  TwHt9ALzt             (m/s^2)               ElastoDyn
      24  QD2_TFA1              (m/s^2)               ElastoDyn
      25  TwrTpTDxi             (m)                   ElastoDyn
      26  TwrTpTDyi             (m)                   ElastoDyn
      27  TwrTpTDzi             (m)                   ElastoDyn
      28  TwrBsMyt              (kN-m)                ElastoDyn
      29  TwrBsMxt              (kN-m)                ElastoDyn
      30  LSSTipPxs             (deg)                 ElastoDyn
      31  RtAeroPwr             (W)                   AeroDyn
      32  GenPwr                (kW)                  ServoDyn
      33  GenTq                 (kN-m)                ServoDyn
