
FAST Summary File

Predictions were generated on 02-Jul-2025 at 10:20:19 using OpenFAST, compiled as a 64-bit application using single precision at commit v3.5.3
  compiled with
    NWTC Subroutine Library
    ElastoDyn
    BeamDyn (unknown version, unknown date) [not called]
    InflowWind
    AeroDyn14 (unknown version, unknown date) [not called]
    AeroDyn
    ServoDyn
    HydroDyn (unknown version, unknown date) [not called]
    SubDyn (unknown version, unknown date) [not called]
    ExtPtfm_MCKF (unknown version, unknown date) [not called]
    MAP (unknown version, unknown date) [not called]
    FEAMooring (unknown version, unknown date) [not called]
    MoorDyn (unknown version, unknown date) [not called]
    OrcaFlexInterface (unknown version, unknown date) [not called]
    IceFloe (unknown version, unknown date) [not called]
    IceDyn (unknown version, unknown date) [not called]


Modeling a land-based turbine
Description from the FAST input file: 
  Generated     with          - AeroElasticSE FAST driver

Interpolation order for input/output time histories: 2 (quadratic)
Number of correction iterations:  0


   Requested Time Steps  
  -------------------------------------------------
  Component          Time Step (s)    Subcycles (-)
  -----------------  ---------------  -------------
  FAST (glue code)    6.250E-03
  InflowWind          6.250E-03              1
  ElastoDyn           6.250E-03              1
  AeroDyn             6.250E-03              1
  ServoDyn            6.250E-03              1
  FAST output files   6.250E-03              1


   Requested Channels in FAST Output File(s)  
  --------------------------------------------
  Number  Name                  Units                 Generated by
  ------  --------------------  --------------------  ------------
       1  Time                  (s)                   OpenFAST
       2  BldPitch1             (deg)                 ElastoDyn
       3  Azimuth               (deg)                 ElastoDyn
       4  RotSpeed              (rpm)                 ElastoDyn
       5  GenSpeed              (rpm)                 ElastoDyn
       6  YawPzn                (deg)                 ElastoDyn
       7  RotPwr                (kW)                  ElastoDyn
       8  RotTorq               (kN-m)                ElastoDyn
       9  LSSTipMys             (kN-m)                ElastoDyn
      10  LSSTipMzs             (kN-m)                ElastoDyn
      11  LSShftFys             (kN)                  ElastoDyn
      12  LSShftFzs             (kN)                  ElastoDyn
      13  RootMyb1              (kN-m)                ElastoDyn
      14  RootMyb2              (kN-m)                ElastoDyn
      15  RootMyb3              (kN-m)                ElastoDyn
      16  RootMxb1              (kN-m)                ElastoDyn
      17  RootMxb2              (kN-m)                ElastoDyn
      18  RootMxb3              (kN-m)                ElastoDyn
      19  TipDxb1               (m)                   ElastoDyn
      20  TipDxb2               (m)                   ElastoDyn
      21  TipDxb3               (m)                   ElastoDyn
      22  TipDxc1               (m)                   ElastoDyn
      23  TipDxc2               (m)                   ElastoDyn
      24  TipDxc3               (m)                   ElastoDyn
      25  TipDyb1               (m)                   ElastoDyn
      26  TipDyb2               (m)                   ElastoDyn
      27  TipDyb3               (m)                   ElastoDyn
      28  TipDyc1               (m)                   ElastoDyn
      29  TipDyc2               (m)                   ElastoDyn
      30  TipDyc3               (m)                   ElastoDyn
      31  TipDzb1               (m)                   ElastoDyn
      32  TipDzb2               (m)                   ElastoDyn
      33  TipDzb3               (m)                   ElastoDyn
      34  TipDzc1               (m)                   ElastoDyn
      35  TipDzc2               (m)                   ElastoDyn
      36  TipDzc3               (m)                   ElastoDyn
      37  TwrBsMyt              (kN-m)                ElastoDyn
      38  TwrBsMxt              (kN-m)                ElastoDyn
      39  LSSTipPxs             (deg)                 ElastoDyn
      40  GenPwr                (kW)                  ServoDyn
      41  GenTq                 (kN-m)                ServoDyn
