
FAST Summary File

Predictions were generated on 21-Oct-2024 at 14:01:12 using OpenFAST, compiled as a 64-bit application using single precision at commit v3.5.3
  compiled with
    NWTC Subroutine Library
    ElastoDyn
    BeamDyn (unknown version, unknown date) [not called]
    InflowWind
    AeroDyn14 (unknown version, unknown date) [not called]
    AeroDyn
    ServoDyn
    HydroDyn (unknown version, unknown date) [not called]
    SubDyn (unknown version, unknown date) [not called]
    ExtPtfm_MCKF (unknown version, unknown date) [not called]
    MAP (unknown version, unknown date) [not called]
    FEAMooring (unknown version, unknown date) [not called]
    MoorDyn (unknown version, unknown date) [not called]
    OrcaFlexInterface (unknown version, unknown date) [not called]
    IceFloe (unknown version, unknown date) [not called]
    IceDyn (unknown version, unknown date) [not called]


Modeling a land-based turbine
Description from the FAST input file: 
  Generated with AeroElasticSE FAST driver

Interpolation order for input/output time histories: 2 (quadratic)
Number of correction iterations:  0


   Requested Time Steps  
  -------------------------------------------------
  Component          Time Step (s)    Subcycles (-)
  -----------------  ---------------  -------------
  FAST (glue code)    6.250E-03
  InflowWind          6.250E-03              1
  ElastoDyn           6.250E-03              1
  AeroDyn             6.250E-03              1
  ServoDyn            6.250E-03              1
  FAST output files   6.250E-03              1


   Requested Channels in FAST Output File(s)  
  --------------------------------------------
  Number  Name                  Units                 Generated by
  ------  --------------------  --------------------  ------------
       1  Time                  (s)                   OpenFAST
       2  Wind1VelX             (m/s)                 InflowWind
       3  Wind1VelY             (m/s)                 InflowWind
       4  Wind1VelZ             (m/s)                 InflowWind
       5  WindHubVelX           (m/s)                 InflowWind
       6  WindHubVelY           (m/s)                 InflowWind
       7  WindHubVelZ           (m/s)                 InflowWind
       8  BldPitch1             (deg)                 ElastoDyn
       9  Azimuth               (deg)                 ElastoDyn
      10  RotSpeed              (rpm)                 ElastoDyn
      11  GenSpeed              (rpm)                 ElastoDyn
      12  YawPzn                (deg)                 ElastoDyn
      13  RotPwr                (kW)                  ElastoDyn
      14  RotTorq               (kN-m)                ElastoDyn
      15  LSSTipMys             (kN-m)                ElastoDyn
      16  LSSTipMzs             (kN-m)                ElastoDyn
      17  LSShftFys             (kN)                  ElastoDyn
      18  LSShftFzs             (kN)                  ElastoDyn
      19  RootMyb1              (kN-m)                ElastoDyn
      20  RootMyb2              (kN-m)                ElastoDyn
      21  RootMyb3              (kN-m)                ElastoDyn
      22  RootMxb1              (kN-m)                ElastoDyn
      23  RootMxb2              (kN-m)                ElastoDyn
      24  RootMxb3              (kN-m)                ElastoDyn
      25  TipDxb1               (m)                   ElastoDyn
      26  TipDxb2               (m)                   ElastoDyn
      27  TipDxb3               (m)                   ElastoDyn
      28  TipDxc1               (m)                   ElastoDyn
      29  TipDxc2               (m)                   ElastoDyn
      30  TipDxc3               (m)                   ElastoDyn
      31  TipDyb1               (m)                   ElastoDyn
      32  TipDyb2               (m)                   ElastoDyn
      33  TipDyb3               (m)                   ElastoDyn
      34  TipDyc1               (m)                   ElastoDyn
      35  TipDyc2               (m)                   ElastoDyn
      36  TipDyc3               (m)                   ElastoDyn
      37  TipDzb1               (m)                   ElastoDyn
      38  TipDzb2               (m)                   ElastoDyn
      39  TipDzb3               (m)                   ElastoDyn
      40  TipDzc1               (m)                   ElastoDyn
      41  TipDzc2               (m)                   ElastoDyn
      42  TipDzc3               (m)                   ElastoDyn
      43  TwrBsMyt              (kN-m)                ElastoDyn
      44  TwrBsMxt              (kN-m)                ElastoDyn
      45  LSSTipPxs             (deg)                 ElastoDyn
      46  GenPwr                (kW)                  ServoDyn
      47  GenTq                 (kN-m)                ServoDyn
